# vtk DataFile Version 3.0
vtk output
ASCII
DATASET UNSTRUCTURED_GRID
POINTS 3 double
0 0 0 0 0 0 0 0 0 

CELL_TYPES 0

POINT_DATA 3
VECTORS vectors double
24.003 9.29208 -7.95238 0 0 45.6295 24.003 9.29208 37.6771 

